2.000000000000000000e+00 1.555983270227339343e-01 1.556165927264964999e-01 1.261122703552246094e+00
3.000000000000000000e+00 6.926536778354773494e-02 6.927565846942754235e-02 3.049481153488159180e+00
4.000000000000000000e+00 3.879833345043271625e-02 3.880124235230839047e-02 6.156345129013061523e+00
5.000000000000000000e+00 2.500527156727759548e-02 2.500937928494358434e-02 1.118205451965332031e+01
6.000000000000000000e+00 1.725715845802966442e-02 1.726170512882607352e-02 1.630265188217163086e+01
7.000000000000000000e+00 1.289476535955983751e-02 1.290133702020572308e-02 3.015694880485534668e+01
8.000000000000000000e+00 9.670560395708238666e-03 9.677636552414110860e-03 4.478594446182250977e+01
9.000000000000000000e+00 7.589121950913559587e-03 7.594444904301684424e-03 6.144118261337280273e+01
1.000000000000000000e+01 6.372434224429833829e-03 6.379674084773264905e-03 7.753413248062133789e+01
1.100000000000000000e+01 5.228952281835518717e-03 5.240583049824395524e-03 9.685094857215881348e+01
1.200000000000000000e+01 4.411406100024588967e-03 4.427217786586386088e-03 1.189489536285400391e+02
1.300000000000000000e+01 3.558933156161351880e-03 3.582757337007794283e-03 1.385161299705505371e+02
