# H-y (mm)    U (m/s)
4.0    3.31
8.0    3.83
13.0   4.18
19.0   4.48
25.0   4.71
31.0   4.84
37.0   4.85
43.0   4.71
49.0   4.49
55.0   4.19
60.0   3.81