# H-y (mm)    -U'V' (m/s)^2
4.0    -0.0486
8.0    -0.0425
13.0   -0.0361
19.0   -0.0267
25.0   -0.0159
31.0   -0.0054
37.0   0.0046
43.0   -0.0157
49.0   -0.0260
55.0   -0.0365
60.0   -0.0425