# H-y (mm)    V (m/s)
4.0    0.010
8.0    0.000
13.0   0.000
19.0   0.000
25.0   0.000
31.0   0.010
37.0   -0.005
43.0   0.000
49.0   0.000
55.0   0.000
60.0   0.015