# H-y (mm)    e (m/s)^2
4.0    0.416
8.0    0.300
13.0   0.239
19.0   0.182
25.0   0.137
31.0   0.089
37.0   0.073
43.0   0.105
49.0   0.158
55.0   0.222
60.0   0.281