# H-y (mm)    e (m/s)^2
4.0    0.531
6.0    0.388
8.0    0.345
10.0   0.337
14.0   0.368
19.0   0.429
25.0   0.489
31.0   0.560
37.0   0.604
43.0   0.670
49.0   0.759
55.0   0.874
60.0   0.948