# H-y (mm)    -U'V' (m/s)^2
4.0    -0.0591
6.0    -0.0318
8.0    -0.0087
10.0   -0.0151
14.0   -0.0276
19.0   -0.0330
25.0   -0.0306
31.0   -0.0313
37.0   -0.0400
43.0   -0.0546
49.0   -0.0644
55.0   -0.0930
60.0   -0.0953