# H-y (mm)    U (m/s)
4.0    5.50
6.0    5.96
8.0    6.14
10.0   6.21
14.0   6.15
19.0   6.05
25.0   5.93
31.0   5.82
37.0   5.72
43.0   5.66
49.0   5.58
55.0   5.39
60.0   5.07