# H-y (mm)    V (m/s)
4.0    0.006
6.0    0.067
8.0    0.088
10.0   0.124
14.0   0.180
19.0   0.252
25.0   0.366
31.0   0.433
37.0   0.484
43.0   0.505
49.0   0.494
55.0   0.443
60.0   0.366