# H-y (mm)    -U'V' (m/s)^2
4.0    -0.1462
6.0    -0.0797
8.0    -0.0243
10.0   -0.0245
12.0   -0.0473
16.0   -0.0741
22.0   -0.1051
31.0   -0.1097
40.0   -0.1137
49.0   -0.1284
57.0   -0.1503
65.0   -0.2081