# H-y (mm)    e (m/s)^2
4.0    1.077
6.0    0.825
8.0    0.678
10.0   0.624
12.0   0.655
16.0   0.768
22.0   0.966
31.0   1.201
40.0   1.446
49.0   1.688
57.0   1.929
65.0   2.213