# H-y (mm)    V (m/s)
4.0    0.025
6.0    0.079
8.0    0.098
10.0   0.147
12.0   0.162
16.0   0.251
22.0   0.329
31.0   0.496
40.0   0.614
49.0   0.649
57.0   0.629
65.0   0.516