# H-y (mm)    U (m/s)
4.0    7.48
6.0    8.12
8.0    8.45
10.0   8.58
12.0   8.60
16.0   8.50
22.0   8.25
31.0   7.86
40.0   7.52
49.0   7.21
57.0   6.89
65.0   6.36