1.000000000000000000e+02 1.306468558311462402e+01 2.540000000000000000e+02
1.290000000000000000e+02 3.458770751953125000e+01 3.100000000000000000e+02
1.660000000000000000e+02 8.241641902923583984e+01 4.230000000000000000e+02
2.150000000000000000e+02 2.145131418704986572e+02 5.440000000000000000e+02
2.780000000000000000e+02 4.800542604923248291e+02 6.460000000000000000e+02
3.590000000000000000e+02 1.405356525659561157e+03 1.018000000000000000e+03
4.640000000000000000e+02 1.467494787931442261e+03 8.610000000000000000e+02
5.990000000000000000e+02 2.520769655942916870e+03 7.390000000000000000e+02
7.740000000000000000e+02 3.104387789249420166e+03 7.100000000000000000e+02
1.000000000000000000e+03 3.636250307559967041e+03 7.190000000000000000e+02
