# y (mm)	minus_U*V (cm/s²)
3.0	    3.78
6.0	    3.50
10.0	3.20
14.0	2.80
18.0	2.44
22.0	2.10
26.0	1.66
30.0	1.23
34.0	1.01
36.0	1.01