# y (mm)	U (m/s)
1.2	    0.225
1.8	    0.300
2.9	    0.332
5.3	    0.363
10.3	0.398
16.8	0.431
23.5	0.441
30.6	0.458
33.6	0.477
36.3	0.496