# y (mm)	e (m^2/s²)
2.0	    0.004740
4.0	    0.003060
6.0	    0.002760
10.0	0.002390
14.0	0.002130
18.0	0.001774
22.0	0.001546
26.0	0.001380
30.0	0.001318
33.0	0.001341