# y (mm)	V (m/s)
4.4	    -0.0025
4.7	    -0.0013
6.1	    -0.0013
9.6	    -0.0019
14.3	-0.0013
19.4	-0.0013
24.4	-0.0025
28.6	-0.0013
34.0	-0.0025
35.0	-0.0038