# y (mm)    -U*V (cm/s²)
2.0    4.33
3.0    3.36
4.0    1.79
5.0    1.20
6.0    0.39
8.0    -0.07
12.0   -0.24
16.0   -0.24
20.0   -0.05
24.0   0.73
28.0   1.32