# y (mm)    V (cm/s)
4.4    -0.88
4.7    -0.75
5.9    -1.13
7.7    -1.61
10.1   -2.01
13.0   -2.45
16.4   -2.89
19.3   -3.14
22.3   -3.01
26.0   -2.64
28.3   -2.26