# y (mm)    e (cm/s²)
2.0    51.35
3.0    38.80
4.0    27.90
5.0    21.80
6.0    18.20
10.0   12.66
14.0   12.70
18.0   14.42
22.0   17.91
26.0   24.90
28.0   30.90