# y (mm)    U (m/s)
1.2    0.365
2.7    0.470
4.2    0.504
8.6    0.546
14.6   0.549
18.6   0.545
22.2   0.540
26.0   0.534
29.6   0.532
31.1   0.570
32.8   0.616