# y (mm)    -U*V (cm/s²)
3.0    6.30
4.0    3.93
5.0    1.71
6.0    0.52
7.0    0.03
10.0   -0.24
14.0   0.66
17.0   2.35
19.0   3.71
20.0   4.39
21.0   4.90
21.5   4.85