# y (mm)    U (m/s)
0.4    0.339
1.5    0.605
2.1    0.646
3.7    0.702
4.7    0.728
7.3    0.759
8.8    0.758
11.7   0.755
14.6   0.753
15.2   0.750
18.6   0.754
24.2   0.866