# y (mm)    V (cm/s)
4.4    -1.13
4.5    -1.13
5.0    -1.38
6.2    -1.88
8.3    -2.39
9.5    -2.64
11.4   -2.89
12.7   -3.14
14.2   -3.27
16.1   -3.27
17.9   -3.01
19.4   -2.89