# y (mm)    e (cm/s²)
2.0    82.90
3.0    63.40
4.0    54.50
5.0    45.00
6.0    39.70
8.0    32.80
10.0   32.60
12.0   33.50
13.0   34.40
14.0   35.90
15.0   37.70
16.0   40.70