1.000000000000000000e+02 5.230000000000000426e+00 2.540000000000000000e+02
1.290000000000000000e+02 1.511999999999999922e+01 3.100000000000000000e+02
1.660000000000000000e+02 3.142999999999999972e+01 4.230000000000000000e+02
2.150000000000000000e+02 9.110999999999999943e+01 5.440000000000000000e+02
2.780000000000000000e+02 2.015099999999999909e+02 6.460000000000000000e+02
3.590000000000000000e+02 7.359400000000000546e+02 1.018000000000000000e+03
4.640000000000000000e+02 7.870499999999999545e+02 8.610000000000000000e+02
5.990000000000000000e+02 1.709106464385986328e+03 7.390000000000000000e+02
7.740000000000000000e+02 2.169870665311813354e+03 7.100000000000000000e+02
1.000000000000000000e+03 2.536297977209091187e+03 7.190000000000000000e+02
