1.000000000000000000e+02 2.144826149940490723e+01 2.540000000000000000e+02
1.290000000000000000e+02 3.148628854751586914e+01 3.100000000000000000e+02
1.660000000000000000e+02 5.054361295700073242e+01 4.230000000000000000e+02
2.150000000000000000e+02 8.218927860260009766e+01 5.440000000000000000e+02
2.780000000000000000e+02 1.280107858180999756e+02 6.460000000000000000e+02
3.590000000000000000e+02 2.770919110774993896e+02 1.018000000000000000e+03
4.640000000000000000e+02 3.394313285350799561e+02 8.610000000000000000e+02
5.990000000000000000e+02 4.491960346698760986e+02 7.390000000000000000e+02
7.740000000000000000e+02 6.857691054344177246e+02 7.100000000000000000e+02