1.000000000000000000e+02 2.979999999999999982e+00 2.540000000000000000e+02
1.290000000000000000e+02 6.450000000000000178e+00 3.100000000000000000e+02
1.660000000000000000e+02 1.648999999999999844e+01 4.230000000000000000e+02
2.150000000000000000e+02 3.253999999999999915e+01 5.440000000000000000e+02
2.780000000000000000e+02 8.709999999999999432e+01 6.460000000000000000e+02
3.590000000000000000e+02 2.206599999999999966e+02 1.018000000000000000e+03
4.640000000000000000e+02 2.730899999999999750e+02 8.610000000000000000e+02
5.990000000000000000e+02 5.818400000000000318e+02 7.390000000000000000e+02
7.740000000000000000e+02 1.146859999999999900e+03 7.100000000000000000e+02
