1.000000000000000000e+02 2.509999999999999787e+00 2.540000000000000000e+02
1.290000000000000000e+02 4.929999999999999716e+00 3.100000000000000000e+02
1.660000000000000000e+02 1.122000000000000064e+01 4.230000000000000000e+02
2.150000000000000000e+02 2.375000000000000000e+01 5.440000000000000000e+02
2.780000000000000000e+02 6.099000000000000199e+01 6.460000000000000000e+02
3.590000000000000000e+02 1.567299999999999898e+02 1.018000000000000000e+03
4.640000000000000000e+02 2.795500000000000114e+02 8.610000000000000000e+02
5.990000000000000000e+02 4.066899999999999977e+02 7.390000000000000000e+02
7.740000000000000000e+02 6.383799999999999955e+02 7.100000000000000000e+02
1.000000000000000000e+03 1.488119999999999891e+03 7.190000000000000000e+02