2.000000000000000000e+00 6.604312584347487025e-01 6.607953693947605789e-01 1.257776498794555664e+00
3.000000000000000000e+00 2.932922735729450725e-01 2.934789823351187654e-01 3.238729953765869141e+00
4.000000000000000000e+00 1.651514259597020862e-01 1.652655632119529872e-01 6.534485816955566406e+00
5.000000000000000000e+00 1.059586789501309606e-01 1.060347130626193984e-01 8.587311506271362305e+00
6.000000000000000000e+00 7.340971318596607731e-02 7.345542357124144883e-02 1.785834050178527832e+01
7.000000000000000000e+00 5.408535951009368209e-02 5.412319936308884749e-02 3.142485475540161133e+01
8.000000000000000000e+00 4.141885120347570809e-02 4.145826604937712795e-02 4.481644511222839355e+01
9.000000000000000000e+00 3.265514135535542428e-02 3.268521556652282528e-02 5.385142254829406738e+01
1.000000000000000000e+01 2.637303240137602381e-02 2.639818882747060891e-02 6.503466033935546875e+01
1.100000000000000000e+01 2.177747338486702919e-02 2.180519366148743476e-02 9.027057695388793945e+01
1.200000000000000000e+01 1.847118876574616736e-02 1.849086002718510272e-02 1.109107980728149414e+02
1.300000000000000000e+01 1.565138171613754056e-02 1.567379508605167351e-02 1.323728635311126709e+02
