2.000000000000000000e+00 1.449110105260886572e+00 1.823076345735216153e+00 3.627195358276367188e-01
3.000000000000000000e+00 6.982689882973220907e-01 8.640370410438654725e-01 4.526381492614746094e-01
4.000000000000000000e+00 4.267671445799602892e-01 4.969072097157901102e-01 5.176303386688232422e-01
5.000000000000000000e+00 2.800375830284211331e-01 3.211599280804738332e-01 6.034879684448242188e-01
6.000000000000000000e+00 1.957304732058342267e-01 2.240589799359288259e-01 6.984624862670898438e-01
7.000000000000000000e+00 1.437650174981113249e-01 1.651768180711699896e-01 9.120392799377441406e-01
8.000000000000000000e+00 1.097086707253088766e-01 1.267006649873798907e-01 1.311095952987670898e+00
9.000000000000000000e+00 8.634331379256411643e-02 1.002683153110577041e-01 1.657122373580932617e+00
1.000000000000000000e+01 7.022610855227609528e-02 8.136110967746278122e-02 2.060485124588012695e+00
1.100000000000000000e+01 5.825113362902412800e-02 6.726197249136897649e-02 2.828548431396484375e+00
1.200000000000000000e+01 4.908222431515088524e-02 5.663225561112871648e-02 3.526867151260375977e+00
1.300000000000000000e+01 4.178119279623348364e-02 4.821359622848527676e-02 3.720433473587036133e+00
1.400000000000000000e+01 3.593778994581804664e-02 4.145135710070394636e-02 4.805599927902221680e+00
1.500000000000000000e+01 3.132240244919785865e-02 3.624877934562203280e-02 6.174738407135009766e+00
1.600000000000000000e+01 2.744520473385582068e-02 3.175053844179395041e-02 7.640276193618774414e+00
1.700000000000000000e+01 2.440196587742162609e-02 2.820407522371962822e-02 9.396303415298461914e+00
1.800000000000000000e+01 2.183646351622684639e-02 2.516812384758254986e-02 1.116399574279785156e+01
1.900000000000000000e+01 1.961661743837682381e-02 2.264597879008754117e-02 1.107640767097473145e+01
2.000000000000000000e+01 1.772229809248714039e-02 2.045895839159420082e-02 1.402867698669433594e+01
2.100000000000000000e+01 1.605359122749127829e-02 1.854475637438471325e-02 1.644992208480834961e+01
2.200000000000000000e+01 1.458846972168278966e-02 1.682323630773628620e-02 1.992506551742553711e+01
2.300000000000000000e+01 1.332566736863184664e-02 1.540546416783057128e-02 1.618681621551513672e+01
2.400000000000000000e+01 1.229659043401661565e-02 1.420331712995392438e-02 2.316523456573486328e+01
2.500000000000000000e+01 1.129238815919925316e-02 1.306297005364611546e-02 1.969337081909179688e+01
2.600000000000000000e+01 1.043896550079866439e-02 1.206054446781031075e-02 2.713317203521728516e+01
2.700000000000000000e+01 9.664921879216222325e-03 1.117136485656890221e-02 2.386165094375610352e+01
2.800000000000000000e+01 9.040183090324973442e-03 1.045627918466185066e-02 3.059810566902160645e+01
2.900000000000000000e+01 8.411369041172775396e-03 9.716999907115667773e-03 2.714442133903503418e+01
